# LAMMPS data file written by OVITO Basic 3.7.8
6 atoms
2 atom types
0.0 3.240464 xlo xhi
0.0 5.612648 ylo yhi
0.0 6.059359 zlo zhi

Atoms  # charge

1 2 0.0 1.620232 0.935441 1.504896
2 2 0.0 0.0 3.741765 1.504896
3 1 0.0 0.0 0.0 3.059359
4 2 0.0 0.0 1.870883 4.613822
5 1 0.0 1.620232 2.806324 3.059359
6 2 0.0 1.620232 4.677207 4.613822
