# LAMMPS data file written by OVITO Basic 3.7.8
6 atoms
2 atom types
0.0 3.2 xlo xhi
0.0 5.540988 ylo yhi
0.0 12.42199 zlo zhi
0.0 0.0 0.0 xy xz yz

Atoms  # charge

1 1 0.0 0.0 1.846996 3.105498
2 2 0.0 1.599545 0.923498 4.668467
3 2 0.0 1.599545 0.923498 1.542528
4 2 0.0 0.0 3.693992 4.668467
5 2 0.0 0.0 3.693992 1.542528
6 1 0.0 1.599545 4.61749 3.105498
